version 2
run General-0-20220119-20:44:04-937
attr configname General
attr datetime 20220119-20:44:04
attr experiment General
attr inifile linkSW.ini
attr iterationvars ""
attr iterationvarsf ""
attr measurement ""
attr network linkSW
attr processid 937
attr repetition 0
attr replication #0
attr resultdir results
attr runnumber 0
attr seedset 0

vector 0 linkSW.nodo1 HopCount ETV
vector 1 linkSW.nodo2 HopCount ETV
vector 2 linkSW.nodo5 HopCount ETV
vector 3 linkSW.nodo3 delayCountVector ETV
vector 4 linkSW.nodo3 HopCount ETV
vector 5 linkSW.nodo5 delayCountVector ETV
vector 6 linkSW.nodo4 delayCountVector ETV
vector 7 linkSW.nodo4 HopCount ETV
vector 8 linkSW.nodo2 delayCountVector ETV
0	4	1.657540207832	0
0	10	2.672440592462	0
0	16	3.95843417959	0
0	22	4.397125512124	0
0	30	4.964832021275	0
0	44	6.863192711602	0
0	50	7.138717806978	0
0	60	7.617300321528	0
0	68	8.001444516979	0
0	74	8.533571666921	0
0	80	8.609472222843	0
0	92	9.80520882998	0
0	102	10.185548799139	0
0	110	10.945826274108	0
0	126	12.424498039286	0
0	134	12.796659373886	0
0	142	12.839722651574	0
0	160	13.825670498288	0
0	168	13.957643877339	0
0	182	15.248903614279	0
0	196	16.289876377435	0
0	204	16.555289092655	0
0	212	16.750538810633	0
0	242	19.610238176115	0
0	252	20.056373690235	0
0	258	20.392054496318	0
0	266	20.608000489789	0
0	276	21.055266883432	0
0	286	21.868753914409	0
0	304	22.666793769089	0
0	316	23.529804826063	0
0	340	25.667634541774	0
0	348	25.717559425291	0
0	354	26.122755912721	0
0	360	26.166774797018	0
0	366	26.280627985196	0
0	372	26.365508041392	0
0	378	26.583998017748	0
0	384	26.609620283423	0
0	394	26.954841842771	0
0	402	27.201783637633	0
0	408	27.64475124308	0
0	414	27.976452646168	0
0	420	28.048848614702	0
0	428	28.34762664516	0
0	434	28.977115850425	0
0	440	29.13486259312	0
0	448	29.594195123649	0
0	464	30.52137839708	0
0	472	30.709171196472	0
0	492	32.667832819835	0
0	506	32.997752416201	0
0	514	33.107504397513	0
0	524	33.257709473189	0
0	530	33.628301435193	0
0	538	33.862268902581	0
0	544	34.190547035184	0
0	552	34.484465113014	0
0	558	34.906232750029	0
0	564	35.032669361733	0
0	576	35.609369282223	0
0	582	35.686050172335	0
0	590	35.70457582736	0
0	602	36.387775059151	0
0	620	37.233870127657	0
0	626	37.392378789406	0
0	634	37.90236670686	0
0	640	37.926861434079	0
0	662	39.397869433828	0
0	668	39.489684400307	0
0	678	39.757944097341	0
0	693	40.360896972651	0
0	722	41.497066713974	0
0	735	42.234497045892	0
0	764	43.485603578926	0
0	770	43.547120207292	0
0	782	44.01663706183	0
0	789	44.145656572158	0
0	798	44.227680797553	0
0	808	45.050462045319	0
0	816	45.419384626316	0
0	822	45.435787882442	0
0	828	45.466115539473	0
0	844	46.489686348194	0
0	856	47.763561656667	0
0	864	48.018441714009	0
0	870	48.252948142053	0
0	882	48.873640152278	0
0	906	50.253385451583	0
0	914	50.504434952833	0
0	929	50.943315490377	0
0	938	51.050357577256	0
0	948	51.416021602958	0
0	954	51.546294450903	0
0	962	51.62287844305	0
0	970	51.808878493023	0
0	978	51.882244588633	0
0	990	52.232667277102	0
0	996	52.301511611017	0
0	1006	52.794065764461	0
0	1022	53.402748769954	0
0	1028	53.71008912731	0
0	1034	53.77944934593	0
0	1056	54.863510598507	0
0	1064	55.341370372515	0
0	1074	55.530391820179	0
0	1082	55.82646185949	0
0	1090	56.061513439795	0
0	1102	56.413256068263	0
0	1112	56.608975337603	0
0	1118	56.655108521448	0
0	1130	57.127431727725	0
0	1138	57.359987856206	0
0	1152	58.048347472806	0
0	1182	59.885500971308	0
0	1192	60.019351597338	0
0	1212	60.65050097771	0
0	1220	60.944748674872	0
0	1226	61.000215743876	0
0	1244	61.784729547771	0
0	1250	61.943845418281	0
0	1256	62.120785855312	0
0	1264	62.32097506795	0
0	1294	64.152805712397	0
0	1302	64.549255536292	0
0	1310	65.122867086612	0
0	1334	67.196369487578	0
0	1340	67.769716762862	0
0	1346	68.025787851568	0
0	1352	68.057607852589	0
0	1368	69.372273025012	0
0	1374	69.631378214137	0
0	1382	70.318647997092	0
1	5	1.657540207832	0
1	11	2.672440592462	0
1	17	3.95843417959	0
1	23	4.397125512124	0
1	31	4.964832021275	0
1	35	5.198540207832	1
1	45	6.863192711602	0
1	51	7.138717806978	0
1	54	7.373540207832	1
1	61	7.617300321528	0
1	69	8.001444516979	0
1	75	8.533571666921	0
1	81	8.609472222843	0
1	93	9.80520882998	0
1	96	10.126873541165	1
1	103	10.185548799139	0
1	105	10.917859378269	1
1	111	10.945826274108	0
1	114	11.072540207832	1
1	117	11.747192711602	1
1	127	12.424498039286	0
1	135	12.796659373886	0
1	143	12.839722651574	0
1	147	12.892192711602	1
1	153	13.514540207832	1
1	155	13.695859378269	1
1	161	13.825670498288	0
1	169	13.957643877339	0
1	183	15.248903614279	0
1	189	15.934003831621	1
1	191	16.225337164954	1
1	197	16.289876377435	0
1	205	16.555289092655	0
1	213	16.750538810633	0
1	219	17.171872143966	1
1	243	19.610238176115	0
1	253	20.056373690235	0
1	259	20.392054496318	0
1	267	20.608000489789	0
1	277	21.055266883432	0
1	287	21.868753914409	0
1	291	21.974707023569	1
1	297	22.214540207832	2
1	305	22.666793769089	0
1	309	22.938707023569	1
1	311	23.245206874499	1
1	317	23.529804826063	0
1	323	24.074540207832	1
1	331	25.219540207832	1
1	335	25.562873541166	1
1	341	25.667634541774	0
1	349	25.717559425291	0
1	355	26.122755912721	0
1	361	26.166774797018	0
1	367	26.280627985196	0
1	373	26.365508041392	0
1	379	26.583998017748	0
1	385	26.609620283423	0
1	395	26.954841842771	0
1	403	27.201783637633	0
1	409	27.64475124308	0
1	415	27.976452646168	0
1	421	28.048848614702	0
1	429	28.34762664516	0
1	435	28.977115850425	0
1	441	29.13486259312	0
1	449	29.594195123649	0
1	459	30.233301208441	1
1	465	30.52137839708	0
1	473	30.709171196472	0
1	493	32.667832819835	0
1	495	32.85630120844	1
1	507	32.997752416201	0
1	509	33.049301208439	1
1	515	33.107504397513	0
1	519	33.244873541167	1
1	525	33.257709473189	0
1	531	33.628301435193	0
1	533	33.795634541772	1
1	539	33.862268902581	0
1	545	34.190547035184	0
1	547	34.332301208439	1
1	553	34.484465113014	0
1	559	34.906232750029	0
1	565	35.032669361733	0
1	567	35.049634541772	1
1	571	35.213967875105	1
1	577	35.609369282223	0
1	583	35.686050172335	0
1	591	35.70457582736	0
1	593	35.9982068745	2
1	603	36.387775059151	0
1	605	36.566634541772	1
1	607	36.819540207833	1
1	621	37.233870127657	0
1	627	37.392378789406	0
1	635	37.90236670686	0
1	641	37.926861434079	0
1	647	38.4512068745	1
1	653	38.654540207834	1
1	655	38.945873541167	1
1	663	39.397869433828	0
1	669	39.489684400307	0
1	671	39.543540207834	2
1	679	39.757944097341	0
1	681	39.969873541167	1
1	694	40.360896972651	0
1	699	40.754967875105	1
1	701	41.000540207834	2
1	703	41.172206874501	2
1	723	41.497066713974	0
1	729	42.182301208439	1
1	736	42.234497045892	0
1	741	42.426301208439	1
1	751	42.946301208438	1
1	753	42.995634541771	1
1	765	43.485603578926	0
1	771	43.547120207292	0
1	773	43.732873541168	2
1	783	44.01663706183	0
1	790	44.145656572158	0
1	799	44.227680797553	0
1	809	45.050462045319	0
1	811	45.144873541169	1
1	817	45.419384626316	0
1	823	45.435787882442	0
1	829	45.466115539473	0
1	835	45.930301208437	1
1	839	46.108873541169	1
1	845	46.489686348194	0
1	847	47.027967875104	1
1	857	47.763561656667	0
1	865	48.018441714009	0
1	871	48.252948142053	0
1	873	48.323967875104	1
1	883	48.873640152278	0
1	895	49.599540207835	1
1	907	50.253385451583	0
1	909	50.420873541168	2
1	915	50.504434952833	0
1	921	50.757634541771	1
1	923	50.898634541771	1
1	925	50.943301208438	1
1	930	50.943315490377	0
1	939	51.050357577256	0
1	949	51.416021602958	0
1	955	51.546294450903	0
1	963	51.62287844305	0
1	971	51.808878493023	0
1	979	51.882244588633	0
1	991	52.232667277102	0
1	997	52.301511611017	0
1	1007	52.794065764461	0
1	1011	52.991021602958	1
1	1015	53.157354936291	1
1	1023	53.402748769954	0
1	1029	53.71008912731	0
1	1035	53.77944934593	0
1	1037	53.845540207834	1
1	1047	54.370422460643	1
1	1057	54.863510598507	0
1	1065	55.341370372515	0
1	1067	55.477206874501	2
1	1075	55.530391820179	0
1	1083	55.82646185949	0
1	1085	55.938391820179	1
1	1091	56.061513439795	0
1	1103	56.413256068263	0
1	1107	56.579725153512	1
1	1113	56.608975337603	0
1	1119	56.655108521448	0
1	1125	57.091058486845	1
1	1131	57.127431727725	0
1	1139	57.359987856206	0
1	1145	57.851391820178	1
1	1153	58.048347472806	0
1	1183	59.885500971308	0
1	1193	60.019351597338	0
1	1195	60.047873541168	1
1	1197	60.164206874501	1
1	1199	60.267873541168	1
1	1205	60.520540207835	1
1	1213	60.65050097771	0
1	1215	60.711540207835	1
1	1221	60.944748674872	0
1	1227	61.000215743876	0
1	1229	61.187540207835	1
1	1235	61.577415341539	1
1	1238	61.724206874502	1
1	1245	61.784729547771	0
1	1251	61.943845418281	0
1	1257	62.120785855312	0
1	1265	62.32097506795	0
1	1267	62.503119188645	1
1	1269	62.678873541169	1
1	1281	63.377119188645	1
1	1283	63.396206874502	1
1	1289	64.043540207835	1
1	1295	64.152805712397	0
1	1303	64.549255536292	0
1	1311	65.122867086612	0
1	1317	65.396206874502	1
1	1318	65.399922202959	1
1	1335	67.196369487578	0
1	1341	67.769716762862	0
1	1347	68.025787851568	0
1	1353	68.057607852589	0
1	1355	68.560540207835	2
1	1357	68.662206874502	2
1	1361	68.997716762862	1
1	1369	69.372273025012	0
1	1375	69.631378214137	0
1	1383	70.318647997092	0
1	1389	70.649873541169	1
2	6	1.657540207832	0
2	12	2.672440592462	0
2	18	3.95843417959	0
2	24	4.397125512124	0
2	32	4.964832021275	0
2	33	5.198540207832	1
2	46	6.863192711602	0
2	52	7.138717806978	0
2	53	7.373540207832	1
2	62	7.617300321528	0
2	70	8.001444516979	0
2	76	8.533571666921	0
2	82	8.609472222843	0
2	94	9.80520882998	0
2	95	10.126873541165	1
2	104	10.185548799139	0
2	112	10.945826274108	0
2	119	12.018206874499	1
2	128	12.424498039286	0
2	136	12.796659373886	0
2	144	12.839722651574	0
2	149	13.239206874499	1
2	162	13.825670498288	0
2	170	13.957643877339	0
2	184	15.248903614279	0
2	185	15.629873541167	1
2	198	16.289876377435	0
2	206	16.555289092655	0
2	214	16.750538810633	0
2	223	17.691206874501	1
2	225	17.862873541168	1
2	244	19.610238176115	0
2	254	20.056373690235	0
2	260	20.392054496318	0
2	261	20.423540207835	1
2	268	20.608000489789	0
2	278	21.055266883432	0
2	288	21.868753914409	0
2	293	22.066206874501	1
2	306	22.666793769089	0
2	318	23.529804826063	0
2	319	23.697873541168	1
2	342	25.667634541774	0
2	350	25.717559425291	0
2	356	26.122755912721	0
2	362	26.166774797018	0
2	368	26.280627985196	0
2	374	26.365508041392	0
2	380	26.583998017748	0
2	386	26.609620283423	0
2	396	26.954841842771	0
2	404	27.201783637633	0
2	410	27.64475124308	0
2	416	27.976452646168	0
2	422	28.048848614702	0
2	430	28.34762664516	0
2	436	28.977115850425	0
2	442	29.13486259312	0
2	450	29.594195123649	0
2	455	30.026540207834	1
2	457	30.128206874501	1
2	466	30.52137839708	0
2	474	30.709171196472	0
2	494	32.667832819835	0
2	497	32.892873541168	1
2	508	32.997752416201	0
2	516	33.107504397513	0
2	526	33.257709473189	0
2	532	33.628301435193	0
2	540	33.862268902581	0
2	546	34.190547035184	0
2	554	34.484465113014	0
2	560	34.906232750029	0
2	566	35.032669361733	0
2	569	35.123540207835	1
2	578	35.609369282223	0
2	584	35.686050172335	0
2	585	35.699540207835	1
2	592	35.70457582736	0
2	604	36.387775059151	0
2	622	37.233870127657	0
2	628	37.392378789406	0
2	636	37.90236670686	0
2	642	37.926861434079	0
2	664	39.397869433828	0
2	670	39.489684400307	0
2	680	39.757944097341	0
2	695	40.360896972651	0
2	724	41.497066713974	0
2	725	41.810206874502	1
2	737	42.234497045892	0
2	757	43.262206874502	1
2	766	43.485603578926	0
2	772	43.547120207292	0
2	774	43.732873541169	1
2	784	44.01663706183	0
2	791	44.145656572158	0
2	800	44.227680797553	0
2	810	45.050462045319	0
2	818	45.419384626316	0
2	824	45.435787882442	0
2	830	45.466115539473	0
2	831	45.478206874502	1
2	846	46.489686348194	0
2	849	47.190540207835	1
2	858	47.763561656667	0
2	866	48.018441714009	0
2	872	48.252948142053	0
2	884	48.873640152278	0
2	887	49.041540207835	1
2	889	49.157873541168	1
2	891	49.261540207835	1
2	893	49.514206874502	1
2	897	49.705206874502	1
2	901	50.181206874502	1
2	908	50.253385451583	0
2	916	50.504434952833	0
2	931	50.943315490377	0
2	940	51.050357577256	0
2	941	51.135873541169	1
2	950	51.416021602958	0
2	956	51.546294450903	0
2	964	51.62287844305	0
2	965	51.783206874502	1
2	972	51.808878493023	0
2	980	51.882244588633	0
2	981	52.129540207835	1
2	992	52.232667277102	0
2	998	52.301511611017	0
2	1008	52.794065764461	0
2	1024	53.402748769954	0
2	1030	53.71008912731	0
2	1036	53.77944934593	0
2	1043	54.108873541169	1
2	1058	54.863510598507	0
2	1066	55.341370372515	0
2	1076	55.530391820179	0
2	1084	55.82646185949	0
2	1092	56.061513439795	0
2	1095	56.096540207836	1
2	1104	56.413256068263	0
2	1105	56.506873541169	1
2	1114	56.608975337603	0
2	1120	56.655108521448	0
2	1132	57.127431727725	0
2	1133	57.167540207835	1
2	1140	57.359987856206	0
2	1147	57.967873541168	1
2	1154	58.048347472806	0
2	1161	58.476873541168	1
2	1184	59.885500971308	0
2	1185	59.896873541168	1
2	1194	60.019351597338	0
2	1207	60.533873541168	1
2	1214	60.65050097771	0
2	1222	60.944748674872	0
2	1228	61.000215743876	0
2	1233	61.443540207835	1
2	1237	61.723206874502	1
2	1246	61.784729547771	0
2	1252	61.943845418281	0
2	1258	62.120785855312	0
2	1266	62.32097506795	0
2	1277	62.963206874502	1
2	1296	64.152805712397	0
2	1304	64.549255536292	0
2	1312	65.122867086612	0
2	1323	66.593206874502	1
2	1325	66.941206874502	1
2	1327	67.003206874502	1
2	1336	67.196369487578	0
2	1342	67.769716762862	0
2	1348	68.025787851568	0
2	1354	68.057607852589	0
2	1370	69.372273025012	0
2	1376	69.631378214137	0
2	1377	70.151206874502	1
2	1384	70.318647997092	0
2	1391	70.768206874503	1
3	25	4.842440592462	4.842440592462
3	39	6.180832021275	6.180832021275
3	87	9.543540207832	9.543540207832
3	145	12.875206874498	12.875206874498
3	175	14.730540207832	14.730540207832
3	233	18.957206874498	18.957206874498
3	327	24.85470702357	24.85470702357
3	387	26.70570702357	26.70570702357
3	477	31.276373690237	31.276373690237
3	481	31.529040356904	31.529040356904
3	487	32.518707023571	32.518707023571
3	609	36.851166153168	36.851166153168
3	613	37.095166153168	37.095166153168
3	673	39.655832819835	39.655832819835
3	685	39.986166153168	39.986166153168
3	711	41.406166153168	41.406166153168
3	727	42.043166153168	42.043166153168
3	759	43.283166153168	43.283166153168
3	837	46.036499486501	46.036499486501
3	885	48.971166153167	48.971166153167
3	917	50.613832819833	50.613832819833
3	1045	54.243832819833	54.243832819833
3	1141	57.391832819833	57.391832819833
3	1155	58.244499486499	58.244499486499
3	1165	58.958166153166	58.958166153166
3	1171	59.304832819832	59.304832819832
3	1173	59.445832819832	59.445832819832
3	1187	59.999832819833	59.999832819833
3	1203	60.4704994865	60.4704994865
3	1231	61.4344994865	61.4344994865
3	1287	64.0264994865	64.0264994865
3	1321	65.771832819833	65.771832819833
4	25	4.842440592462	1
4	39	6.180832021275	1
4	87	9.543540207832	2
4	145	12.875206874498	2
4	175	14.730540207832	2
4	233	18.957206874498	1
4	327	24.85470702357	2
4	387	26.70570702357	1
4	477	31.276373690237	1
4	481	31.529040356904	1
4	487	32.518707023571	1
4	609	36.851166153168	1
4	613	37.095166153168	1
4	673	39.655832819835	2
4	685	39.986166153168	1
4	711	41.406166153168	1
4	727	42.043166153168	1
4	759	43.283166153168	1
4	837	46.036499486501	3
4	885	48.971166153167	1
4	917	50.613832819833	2
4	1045	54.243832819833	1
4	1141	57.391832819833	1
4	1155	58.244499486499	2
4	1165	58.958166153166	2
4	1171	59.304832819832	2
4	1173	59.445832819832	1
4	1187	59.999832819833	1
4	1203	60.4704994865	2
4	1231	61.4344994865	2
4	1287	64.0264994865	2
4	1321	65.771832819833	2
5	33	5.198540207832	5.198540207832
5	53	7.373540207832	7.373540207832
5	95	10.126873541165	10.126873541165
5	119	12.018206874499	12.018206874499
5	149	13.239206874499	13.239206874499
5	185	15.629873541167	15.629873541167
5	223	17.691206874501	17.691206874501
5	225	17.862873541168	17.862873541168
5	261	20.423540207835	20.423540207835
5	293	22.066206874501	22.066206874501
5	319	23.697873541168	23.697873541168
5	455	30.026540207834	30.026540207834
5	457	30.128206874501	30.128206874501
5	497	32.892873541168	32.892873541168
5	569	35.123540207835	35.123540207835
5	585	35.699540207835	35.699540207835
5	725	41.810206874502	41.810206874502
5	757	43.262206874502	43.262206874502
5	774	43.732873541169	43.732873541169
5	831	45.478206874502	45.478206874502
5	849	47.190540207835	47.190540207835
5	887	49.041540207835	49.041540207835
5	889	49.157873541168	49.157873541168
5	891	49.261540207835	49.261540207835
5	893	49.514206874502	49.514206874502
5	897	49.705206874502	49.705206874502
5	901	50.181206874502	50.181206874502
5	941	51.135873541169	51.135873541169
5	965	51.783206874502	51.783206874502
5	981	52.129540207835	52.129540207835
5	1043	54.108873541169	54.108873541169
5	1095	56.096540207836	56.096540207836
5	1105	56.506873541169	56.506873541169
5	1133	57.167540207835	57.167540207835
5	1147	57.967873541168	57.967873541168
5	1161	58.476873541168	58.476873541168
5	1185	59.896873541168	59.896873541168
5	1207	60.533873541168	60.533873541168
5	1233	61.443540207835	61.443540207835
5	1237	61.723206874502	61.723206874502
5	1277	62.963206874502	62.963206874502
5	1323	66.593206874502	66.593206874502
5	1325	66.941206874502	66.941206874502
5	1327	67.003206874502	67.003206874502
5	1377	70.151206874502	70.151206874502
5	1391	70.768206874503	70.768206874503
6	34	5.198540207832	5.198540207832
6	63	7.951873541165	7.951873541165
6	83	8.739540207832	8.739540207832
6	85	8.897540207832	8.897540207832
6	129	12.443540207832	12.443540207832
6	137	12.799206874499	12.799206874499
6	151	13.396873541166	13.396873541166
6	171	14.342540207833	14.342540207833
6	199	16.503206874499	16.503206874499
6	217	17.100873541166	17.100873541166
6	221	17.506873541166	17.506873541166
6	231	18.310540207833	18.310540207833
6	235	19.1622068745	19.1622068745
6	237	19.531540207833	19.531540207833
6	269	20.820873541166	20.820873541166
6	281	21.644873541166	21.644873541166
6	289	21.965873541166	21.965873541166
6	299	22.3092068745	22.3092068745
6	329	24.869873541167	24.869873541167
6	343	25.6912068745	25.6912068745
6	397	27.1742068745	27.1742068745
6	443	29.404873541167	29.404873541167
6	451	29.750873541167	29.750873541167
6	453	29.980873541167	29.980873541167
6	479	31.382540207834	31.382540207834
6	485	32.328206874501	32.328206874501
6	517	33.157540207834	33.157540207834
6	595	36.091540207834	36.091540207834
6	597	36.321873541167	36.321873541167
6	611	37.053206874501	37.053206874501
6	643	37.929206874501	37.929206874501
6	645	38.030873541168	38.030873541168
6	649	38.505206874501	38.505206874501
6	657	39.175873541168	39.175873541168
6	683	39.979540207835	39.979540207835
6	687	40.270873541168	40.270873541168
6	689	40.356206874501	40.356206874501
6	705	41.230540207834	41.230540207834
6	717	41.487873541166	41.487873541166
6	731	42.234206874499	42.234206874499
6	739	42.398540207832	42.398540207832
6	747	42.744873541165	42.744873541165
6	775	43.734540207832	43.734540207832
6	785	44.144873541165	44.144873541165
6	877	48.564873541169	48.564873541169
6	919	50.678206874502	50.678206874502
6	973	51.843540207834	51.843540207834
6	1001	52.521540207831	52.521540207831
6	1009	52.851873541164	52.851873541164
6	1017	53.360873541164	53.360873541164
6	1040	54.074206874501	54.074206874501
6	1059	55.226206874501	55.226206874501
6	1069	55.490873541164	55.490873541164
6	1077	55.652540207834	55.652540207834
6	1093	56.078873541167	56.078873541167
6	1097	56.127873541164	56.127873541164
6	1123	57.037540207831	57.037540207831
6	1157	58.277540207831	58.277540207831
6	1159	58.450873541164	58.450873541164
6	1163	58.500206874497	58.500206874497
6	1201	60.315206874497	60.315206874497
6	1259	62.189540207834	62.189540207834
6	1279	63.151206874501	63.151206874501
6	1285	63.877206874501	63.877206874501
6	1297	64.347873541168	64.347873541168
6	1313	65.182540207831	65.182540207831
6	1315	65.311873541168	65.311873541168
6	1329	67.057206874501	67.057206874501
6	1363	69.232206874501	69.232206874501
7	34	5.198540207832	1
7	63	7.951873541165	1
7	83	8.739540207832	2
7	85	8.897540207832	1
7	129	12.443540207832	2
7	137	12.799206874499	1
7	151	13.396873541166	1
7	171	14.342540207833	2
7	199	16.503206874499	1
7	217	17.100873541166	1
7	221	17.506873541166	1
7	231	18.310540207833	1
7	235	19.1622068745	1
7	237	19.531540207833	2
7	269	20.820873541166	1
7	281	21.644873541166	1
7	289	21.965873541166	1
7	299	22.3092068745	1
7	329	24.869873541167	1
7	343	25.6912068745	1
7	397	27.1742068745	1
7	443	29.404873541167	1
7	451	29.750873541167	2
7	453	29.980873541167	1
7	479	31.382540207834	1
7	485	32.328206874501	2
7	517	33.157540207834	2
7	595	36.091540207834	1
7	597	36.321873541167	1
7	611	37.053206874501	1
7	643	37.929206874501	1
7	645	38.030873541168	1
7	649	38.505206874501	1
7	657	39.175873541168	2
7	683	39.979540207835	2
7	687	40.270873541168	1
7	689	40.356206874501	1
7	705	41.230540207834	1
7	717	41.487873541166	1
7	731	42.234206874499	1
7	739	42.398540207832	1
7	747	42.744873541165	1
7	775	43.734540207832	1
7	785	44.144873541165	1
7	877	48.564873541169	1
7	919	50.678206874502	2
7	973	51.843540207834	2
7	1001	52.521540207831	1
7	1009	52.851873541164	1
7	1017	53.360873541164	1
7	1040	54.074206874501	1
7	1059	55.226206874501	1
7	1069	55.490873541164	1
7	1077	55.652540207834	1
7	1093	56.078873541167	2
7	1097	56.127873541164	1
7	1123	57.037540207831	1
7	1157	58.277540207831	1
7	1159	58.450873541164	1
7	1163	58.500206874497	1
7	1201	60.315206874497	1
7	1259	62.189540207834	1
7	1279	63.151206874501	1
7	1285	63.877206874501	1
7	1297	64.347873541168	1
7	1313	65.182540207831	1
7	1315	65.311873541168	1
7	1329	67.057206874501	1
7	1363	69.232206874501	3
8	35	5.198540207832	5.198540207832
8	54	7.373540207832	7.373540207832
8	96	10.126873541165	10.126873541165
8	105	10.917859378269	10.917859378269
8	114	11.072540207832	11.072540207832
8	117	11.747192711602	11.747192711602
8	147	12.892192711602	12.892192711602
8	153	13.514540207832	13.514540207832
8	155	13.695859378269	13.695859378269
8	189	15.934003831621	15.934003831621
8	191	16.225337164954	16.225337164954
8	219	17.171872143966	17.171872143966
8	291	21.974707023569	21.974707023569
8	297	22.214540207832	22.214540207832
8	309	22.938707023569	22.938707023569
8	311	23.245206874499	23.245206874499
8	323	24.074540207832	24.074540207832
8	331	25.219540207832	25.219540207832
8	335	25.562873541166	25.562873541166
8	459	30.233301208441	30.233301208441
8	495	32.85630120844	32.85630120844
8	509	33.049301208439	33.049301208439
8	519	33.244873541167	33.244873541167
8	533	33.795634541772	33.795634541772
8	547	34.332301208439	34.332301208439
8	567	35.049634541772	35.049634541772
8	571	35.213967875105	35.213967875105
8	593	35.9982068745	35.9982068745
8	605	36.566634541772	36.566634541772
8	607	36.819540207833	36.819540207833
8	647	38.4512068745	38.4512068745
8	653	38.654540207834	38.654540207834
8	655	38.945873541167	38.945873541167
8	671	39.543540207834	39.543540207834
8	681	39.969873541167	39.969873541167
8	699	40.754967875105	40.754967875105
8	701	41.000540207834	41.000540207834
8	703	41.172206874501	41.172206874501
8	729	42.182301208439	42.182301208439
8	741	42.426301208439	42.426301208439
8	751	42.946301208438	42.946301208438
8	753	42.995634541771	42.995634541771
8	773	43.732873541168	43.732873541168
8	811	45.144873541169	45.144873541169
8	835	45.930301208437	45.930301208437
8	839	46.108873541169	46.108873541169
8	847	47.027967875104	47.027967875104
8	873	48.323967875104	48.323967875104
8	895	49.599540207835	49.599540207835
8	909	50.420873541168	50.420873541168
8	921	50.757634541771	50.757634541771
8	923	50.898634541771	50.898634541771
8	925	50.943301208438	50.943301208438
8	1011	52.991021602958	52.991021602958
8	1015	53.157354936291	53.157354936291
8	1037	53.845540207834	53.845540207834
8	1047	54.370422460643	54.370422460643
8	1067	55.477206874501	55.477206874501
8	1085	55.938391820179	55.938391820179
8	1107	56.579725153512	56.579725153512
8	1125	57.091058486845	57.091058486845
8	1145	57.851391820178	57.851391820178
8	1195	60.047873541168	60.047873541168
8	1197	60.164206874501	60.164206874501
8	1199	60.267873541168	60.267873541168
8	1205	60.520540207835	60.520540207835
8	1215	60.711540207835	60.711540207835
8	1229	61.187540207835	61.187540207835
8	1235	61.577415341539	61.577415341539
8	1238	61.724206874502	61.724206874502
8	1267	62.503119188645	62.503119188645
8	1269	62.678873541169	62.678873541169
8	1281	63.377119188645	63.377119188645
8	1283	63.396206874502	63.396206874502
8	1289	64.043540207835	64.043540207835
8	1317	65.396206874502	65.396206874502
8	1318	65.399922202959	65.399922202959
8	1355	68.560540207835	68.560540207835
8	1357	68.662206874502	68.662206874502
8	1361	68.997716762862	68.997716762862
8	1389	70.649873541169	70.649873541169

