version 2
run General-0-20220108-16:46:14-400
attr configname General
attr datetime 20220108-16:46:14
attr experiment General
attr inifile linkSW.ini
attr iterationvars ""
attr iterationvarsf ""
attr measurement ""
attr network linkSW
attr processid 400
attr repetition 0
attr replication #0
attr resultdir results
attr runnumber 0
attr seedset 0

vector 0 linkSW.nodo1 HopCount ETV
vector 1 linkSW.nodo2 HopCount ETV
vector 2 linkSW.nodo5 HopCount ETV
vector 3 linkSW.nodo5 delayCountVector ETV
vector 4 linkSW.nodo4 HopCount ETV
vector 5 linkSW.nodo4 delayCountVector ETV
vector 6 linkSW.nodo2 delayCountVector ETV
vector 7 linkSW.nodo3 HopCount ETV
vector 8 linkSW.nodo3 delayCountVector ETV
0	4	0.368818092426	0
0	10	0.614018092426	0
0	22	1.478864189817	0
0	28	1.644431501682	0
0	34	1.649735232936	0
0	44	2.219064189817	0
0	50	2.329264189817	0
0	55	2.332464189817	0
0	58	2.335664189817	0
0	64	2.688009468996	0
0	70	2.918391536329	0
0	78	2.971916009069	0
0	82	3.007116009069	0
0	102	3.320016643697	0
0	108	3.380209468996	0
0	118	3.533409468996	0
0	122	3.765609468996	0
0	128	4.004216485272	0
0	138	4.224463766066	0
0	146	4.31960453828	0
0	152	4.362315020289	0
0	156	4.370663766066	0
0	161	4.460416485272	0
0	164	4.523616485272	0
0	170	4.586816485272	0
0	174	4.615016485272	0
0	210	5.603922060861	0
0	228	6.376614681729	0
0	236	6.431122060861	0
0	244	6.702412085408	0
0	250	6.759493556922	0
0	254	6.797693556922	0
0	262	6.946322060861	0
0	266	7.163522060861	0
0	270	7.321397459933	0
0	282	7.695597459933	0
0	286	7.745396013048	0
0	294	8.027596013048	0
0	306	8.410293159462	0
0	314	8.509461043961	0
0	331	8.853493159462	0
0	334	8.919693159462	0
0	338	9.048740574262	0
0	346	9.151155843681	0
0	354	9.271545716843	0
0	364	9.407940574262	0
0	366	9.476140574262	0
0	372	9.546018183911	0
0	376	9.556340574262	0
0	380	9.738540574262	0
0	394	9.980918882211	0
0	412	10.270118882211	0
0	450	12.321661782239	0
0	466	12.980710516637	0
0	472	13.029090571177	0
0	491	13.881861782239	0
0	498	14.148548646215	0
0	502	14.321061782239	0
0	504	14.353261782239	0
0	506	14.385461782239	0
0	510	14.393379047125	0
0	520	15.131661782239	0
0	522	15.294861782239	0
0	538	15.674586601208	0
0	544	16.014650748687	0
0	562	16.452860224706	0
0	568	16.528786601208	0
0	576	17.382986601208	0
0	580	17.42538796971	0
0	588	17.609186601208	0
0	592	17.835386601208	0
0	596	17.889391084256	0
0	600	18.07358796971	0
0	602	18.127586601208	0
0	610	18.35964951658	0
0	616	18.436786601208	0
0	622	18.638861234085	0
0	626	18.72178796971	0
0	630	18.745986601208	0
0	636	18.822925112893	0
0	640	18.932186601208	0
0	646	19.054386601208	0
0	656	19.240882191623	0
0	664	19.36998796971	0
0	668	19.519082191623	0
0	676	19.68318796971	0
0	678	19.797282191623	0
0	686	19.875162125601	0
0	702	20.297362125601	0
0	706	20.341661618866	0
0	716	20.651861618866	0
0	726	20.962061618866	0
0	732	21.061661916279	0
0	738	21.133506172021	0
0	750	21.33176265397	0
0	759	21.541861916279	0
0	764	21.589061916279	0
0	768	21.593204010405	0
0	774	21.702817397347	0
0	780	21.709315965295	0
1	5	0.368818092426	0
1	9	0.613918092426	1
1	11	0.614018092426	0
1	14	0.859118092426	2
1	15	0.859218092426	0
1	18	1.104418092426	0
1	23	1.478864189817	0
1	29	1.644431501682	0
1	35	1.649735232936	0
1	38	1.652935232936	0
1	40	1.656135232936	0
1	43	2.218964189817	1
1	45	2.219064189817	0
1	49	2.329164189817	1
1	51	2.329264189817	0
1	54	2.332364189817	1
1	65	2.688009468996	0
1	71	2.918391536329	0
1	74	2.959164189817	0
1	79	2.971916009069	0
1	81	3.007016009069	1
1	84	3.069364189817	0
1	86	3.072564189817	2
1	87	3.072564189817	0
1	89	3.075764189817	2
1	92	3.225764189817	0
1	93	3.228964189817	1
1	96	3.260964189817	0
1	98	3.296164189817	0
1	103	3.320016643697	0
1	109	3.380209468996	0
1	111	3.382164189817	1
1	119	3.614364189817	1
1	123	3.846564189817	1
1	129	4.004216485272	0
1	132	4.036364189817	0
1	134	4.039564189817	0
1	139	4.224463766066	0
1	142	4.271764189817	0
1	147	4.31960453828	0
1	153	4.362315020289	0
1	155	4.370563766066	1
1	158	4.424964189817	0
1	165	4.538764189817	2
1	168	4.578164189817	0
1	177	4.691964189817	2
1	182	4.810364189817	0
1	183	4.924164189817	2
1	185	4.952364189817	1
1	188	5.230964189817	0
1	190	5.259164189817	0
1	192	5.266564189817	0
1	194	5.287364189817	0
1	196	5.315564189817	0
1	197	5.408564189817	2
1	200	5.412764189817	0
1	201	5.436764189817	2
1	204	5.464964189817	0
1	206	5.558964189817	0
1	211	5.603922060861	0
1	214	5.622164189817	0
1	216	5.685364189817	0
1	218	5.713564189817	0
1	220	5.859764189817	0
1	222	6.012964189817	0
1	224	6.166164189817	0
1	229	6.376614681729	0
1	232	6.398364189817	0
1	237	6.431122060861	0
1	240	6.630564189817	0
1	245	6.702412085408	0
1	251	6.759493556922	0
1	253	6.797593556922	1
1	256	6.835793556922	0
1	257	6.891714681729	1
1	264	7.086764189817	0
1	271	7.321397459933	0
1	273	7.406914681729	1
1	278	7.542964189817	0
1	287	7.745396013048	0
1	291	7.922114681729	1
1	296	8.058164189817	0
1	300	8.275364189817	0
1	307	8.410293159462	0
1	310	8.492564189817	0
1	315	8.509461043961	0
1	320	8.709764189817	0
1	324	8.747964189817	0
1	325	8.749314681729	2
1	327	8.787514681729	1
1	332	8.853493159462	0
1	339	9.048740574262	0
1	342	9.122164189817	0
1	347	9.151155843681	0
1	349	9.161714681729	1
1	355	9.271545716843	0
1	360	9.296693159462	0
1	362	9.404364189817	0
1	367	9.535914681729	2
1	373	9.546018183911	0
1	382	9.739893159462	0
1	384	9.806093159462	0
1	386	9.844293159462	0
1	388	9.919564189817	0
1	389	9.979114681729	1
1	395	9.980918882211	0
1	399	10.045314681729	2
1	403	10.125514681729	2
1	408	10.218493159462	0
1	411	10.270018882211	1
1	416	10.592693159462	0
1	420	10.746764189817	0
1	424	10.881893159462	0
1	428	11.105964189817	0
1	430	11.174164189817	0
1	432	11.242364189817	0
1	434	11.310564189817	0
1	438	11.378764189817	0
1	440	11.752964189817	0
1	442	11.833164189817	0
1	444	12.015364189817	0
1	446	12.197564189817	0
1	451	12.321661782239	0
1	454	12.640764189817	0
1	456	12.706964189817	0
1	458	12.773164189817	0
1	460	12.853364189817	0
1	462	12.933564189817	0
1	467	12.980710516637	0
1	473	13.029090571177	0
1	476	13.222764189817	0
1	478	13.419810516637	1
1	479	13.419910516637	0
1	482	13.452110516637	0
1	484	13.484310516637	0
1	486	13.511964189817	0
1	488	13.516510516637	0
1	499	14.148548646215	0
1	511	14.393379047125	0
1	514	14.556579047125	0
1	518	15.072164189817	0
1	523	15.441861782239	2
1	525	15.474061782239	2
1	527	15.506261782239	2
1	530	15.511364189817	0
1	533	15.669461782239	1
1	539	15.674586601208	0
1	545	16.014650748687	0
1	552	16.257564189817	0
1	554	16.289764189817	0
1	557	16.415661782239	2
1	563	16.452860224706	0
1	566	16.452964189817	0
1	570	16.616164189817	0
1	572	17.002061782239	0
1	581	17.42538796971	0
1	584	17.470364189817	0
1	597	17.889391084256	0
1	599	18.07348796971	1
1	604	18.216564189817	0
1	605	18.236986601208	2
1	611	18.35964951658	0
1	618	18.562261782239	0
1	623	18.638861234085	0
1	625	18.72168796971	1
1	632	18.788461782239	0
1	637	18.822925112893	0
1	642	18.962764189817	0
1	648	19.080661782239	0
1	649	19.091186601208	2
1	652	19.202861782239	0
1	657	19.240882191623	0
1	659	19.317386601208	2
1	663	19.36988796971	1
1	672	19.610964189817	0
1	673	19.630586601208	1
1	675	19.68308796971	1
1	679	19.816786601208	1
1	687	19.875162125601	0
1	690	19.920164189817	0
1	692	19.99628796971	0
1	693	20.002986601208	2
1	698	20.18248796971	0
1	700	20.233364189817	0
1	707	20.341661618866	0
1	709	20.425186601208	1
1	712	20.546564189817	0
1	714	20.60468796971	0
1	720	20.732764189817	0
1	721	20.735386601208	1
1	724	20.79088796971	0
1	727	21.045586601208	1
1	733	21.061661916279	0
1	739	21.133506172021	0
1	742	21.21308796971	0
1	751	21.33176265397	0
1	756	21.52328796971	0
1	758	21.541761916279	1
1	762	21.586964189817	0
1	769	21.593204010405	0
1	775	21.702817397347	0
1	781	21.709315965295	0
2	6	0.368818092426	0
2	7	0.613918092426	1
2	12	0.614018092426	0
2	16	0.859218092426	0
2	24	1.478864189817	0
2	30	1.644431501682	0
2	36	1.649735232936	0
2	41	2.218964189817	1
2	46	2.219064189817	0
2	47	2.329164189817	1
2	52	2.329264189817	0
2	53	2.332364189817	1
2	56	2.332464189817	0
2	57	2.335564189817	1
2	60	2.439364189817	0
2	66	2.688009468996	0
2	72	2.918391536329	0
2	80	2.971916009069	0
2	88	3.072664189817	0
2	90	3.075864189817	0
2	94	3.229064189817	0
2	104	3.320016643697	0
2	105	3.380109468996	1
2	110	3.380209468996	0
2	112	3.382264189817	0
2	114	3.415409468996	0
2	116	3.450609468996	0
2	117	3.533309468996	1
2	120	3.614464189817	0
2	121	3.765509468996	1
2	124	3.846664189817	0
2	130	4.004216485272	0
2	140	4.224463766066	0
2	148	4.31960453828	0
2	154	4.362315020289	0
2	159	4.460316485272	1
2	162	4.460416485272	0
2	163	4.523516485272	1
2	166	4.538864189817	0
2	169	4.586716485272	1
2	172	4.606616485272	0
2	173	4.614916485272	1
2	176	4.669816485272	0
2	178	4.692064189817	0
2	180	4.733016485272	0
2	184	4.924264189817	0
2	186	4.952464189817	0
2	198	5.408664189817	0
2	202	5.436864189817	0
2	212	5.603922060861	0
2	230	6.376614681729	0
2	233	6.431022060861	1
2	238	6.431122060861	0
2	246	6.702412085408	0
2	252	6.759493556922	0
2	258	6.891814681729	0
2	260	6.919612085408	0
2	261	6.946222060861	1
2	265	7.163422060861	1
2	272	7.321397459933	0
2	274	7.407014681729	0
2	276	7.461422060861	0
2	280	7.678622060861	0
2	281	7.695497459933	1
2	288	7.745396013048	0
2	290	7.895822060861	0
2	292	7.922214681729	0
2	293	8.027496013048	1
2	298	8.113022060861	0
2	302	8.395222060861	0
2	308	8.410293159462	0
2	316	8.509461043961	0
2	318	8.677422060861	0
2	322	8.743622060861	0
2	326	8.749414681729	0
2	328	8.787614681729	0
2	329	8.853393159462	1
2	333	8.919593159462	1
2	340	9.048740574262	0
2	348	9.151155843681	0
2	350	9.161814681729	0
2	356	9.271545716843	0
2	359	9.296593159462	0
2	363	9.407840574262	1
2	365	9.476040574262	1
2	368	9.536014681729	0
2	374	9.546018183911	0
2	375	9.556240574262	1
2	378	9.655793159462	0
2	379	9.738440574262	1
2	390	9.979214681729	0
2	396	9.980918882211	0
2	398	10.014993159462	0
2	400	10.045414681729	0
2	402	10.083193159462	0
2	404	10.125614681729	0
2	406	10.151393159462	0
2	410	10.231593159462	0
2	414	10.590793159462	0
2	418	10.658993159462	0
2	422	10.841193159462	0
2	426	11.023393159462	0
2	436	11.312593159462	0
2	452	12.321661782239	0
2	468	12.980710516637	0
2	474	13.029090571177	0
2	480	13.419910516637	0
2	489	13.881761782239	1
2	492	13.881861782239	0
2	494	13.914061782239	0
2	500	14.148548646215	0
2	501	14.320961782239	1
2	503	14.353161782239	1
2	505	14.385361782239	1
2	512	14.393379047125	0
2	516	14.894748646215	0
2	519	15.131561782239	1
2	521	15.294761782239	1
2	524	15.441961782239	0
2	526	15.474161782239	0
2	528	15.506361782239	0
2	532	15.640948646215	0
2	534	15.669561782239	0
2	540	15.674586601208	0
2	546	16.014650748687	0
2	548	16.080148646215	0
2	550	16.243348646215	0
2	556	16.406548646215	0
2	558	16.415761782239	0
2	564	16.452860224706	0
2	567	16.528686601208	1
2	574	17.260748646215	0
2	575	17.382886601208	1
2	582	17.42538796971	0
2	586	17.486948646215	0
2	587	17.609086601208	1
2	590	17.779148646215	0
2	591	17.835286601208	1
2	598	17.889391084256	0
2	601	18.127486601208	1
2	606	18.237086601208	0
2	612	18.35964951658	0
2	614	18.427348646215	0
2	615	18.436686601208	1
2	624	18.638861234085	0
2	628	18.736548646215	0
2	629	18.745886601208	1
2	638	18.822925112893	0
2	639	18.932086601208	1
2	644	19.028748646215	0
2	645	19.054286601208	1
2	650	19.091286601208	0
2	658	19.240882191623	0
2	660	19.317486601208	0
2	662	19.337948646215	0
2	666	19.460148646215	0
2	667	19.518982191623	1
2	670	19.582348646215	0
2	674	19.630686601208	0
2	677	19.797182191623	1
2	680	19.816886601208	0
2	682	19.860548646215	0
2	688	19.875162125601	0
2	694	20.003086601208	0
2	696	20.138748646215	0
2	701	20.297262125601	1
2	708	20.341661618866	0
2	710	20.425286601208	0
2	715	20.651761618866	1
2	718	20.719462125601	0
2	722	20.735486601208	0
2	725	20.961961618866	1
2	728	21.045686601208	0
2	734	21.061661916279	0
2	740	21.133506172021	0
2	744	21.272161618866	0
2	746	21.319361618866	0
2	752	21.33176265397	0
2	754	21.46396265397	0
2	757	21.541761916279	1
2	760	21.541861916279	0
2	763	21.588961916279	1
2	770	21.593204010405	0
2	776	21.702817397347	0
2	782	21.709315965295	0
2	783	21.721161916279	1
3	7	0.613918092426	0.613918092426
3	41	2.218964189817	2.218964189817
3	47	2.329164189817	2.329164189817
3	57	2.335564189817	2.335564189817
3	105	3.380109468996	3.380109468996
3	117	3.533309468996	3.533309468996
3	121	3.765509468996	3.765509468996
3	159	4.460316485272	4.460316485272
3	169	4.586716485272	4.586716485272
3	173	4.614916485272	4.614916485272
3	233	6.431022060861	6.431022060861
3	261	6.946222060861	6.946222060861
3	265	7.163422060861	7.163422060861
3	281	7.695497459933	7.695497459933
3	293	8.027496013048	8.027496013048
3	329	8.853393159462	8.853393159462
3	333	8.919593159462	8.919593159462
3	363	9.407840574262	9.407840574262
3	365	9.476040574262	9.476040574262
3	375	9.556240574262	9.556240574262
3	379	9.738440574262	9.738440574262
3	489	13.881761782239	13.881761782239
3	501	14.320961782239	14.320961782239
3	505	14.385361782239	14.385361782239
3	519	15.131561782239	15.131561782239
3	521	15.294761782239	15.294761782239
3	575	17.382886601208	17.382886601208
3	591	17.835286601208	17.835286601208
3	601	18.127486601208	18.127486601208
3	629	18.745886601208	18.745886601208
3	639	18.932086601208	18.932086601208
3	645	19.054286601208	19.054286601208
3	677	19.797182191623	19.797182191623
3	701	20.297262125601	20.297262125601
3	725	20.961961618866	20.961961618866
3	757	21.541761916279	21.541761916279
3	763	21.588961916279	21.588961916279
4	8	0.613918092426	1
4	13	0.859118092426	2
4	17	1.104318092426	3
4	37	1.652835232936	1
4	39	1.656035232936	1
4	59	2.439264189817	2
4	73	2.959064189817	2
4	83	3.069264189817	2
4	85	3.072464189817	2
4	91	3.225664189817	1
4	95	3.260864189817	1
4	97	3.296064189817	2
4	107	3.380109468996	1
4	113	3.415309468996	1
4	115	3.450509468996	1
4	131	4.036264189817	3
4	133	4.039464189817	3
4	141	4.271664189817	1
4	157	4.424864189817	2
4	160	4.460316485272	1
4	167	4.578064189817	2
4	171	4.606516485272	1
4	175	4.669716485272	1
4	179	4.732916485272	2
4	181	4.810264189817	2
4	191	5.266464189817	1
4	199	5.412664189817	1
4	205	5.558864189817	1
4	213	5.622064189817	1
4	215	5.685264189817	1
4	217	5.713464189817	1
4	219	5.859664189817	2
4	221	6.012864189817	3
4	223	6.166064189817	3
4	231	6.398264189817	3
4	235	6.431022060861	1
4	239	6.630464189817	3
4	259	6.919512085408	1
4	263	7.086664189817	3
4	275	7.461322060861	2
4	277	7.542864189817	3
4	279	7.678522060861	2
4	289	7.895722060861	2
4	295	8.058064189817	1
4	297	8.112922060861	2
4	299	8.275264189817	1
4	301	8.395122060861	1
4	309	8.492464189817	1
4	317	8.677322060861	2
4	319	8.709664189817	1
4	321	8.743522060861	1
4	323	8.747864189817	1
4	341	9.122064189817	1
4	357	9.296493159462	2
4	361	9.404264189817	1
4	377	9.655693159462	1
4	387	9.919464189817	2
4	397	10.014893159462	1
4	401	10.083093159462	1
4	405	10.151293159462	1
4	409	10.231493159462	1
4	413	10.590693159462	2
4	417	10.658893159462	2
4	419	10.746664189817	3
4	421	10.841093159462	1
4	425	11.023293159462	2
4	427	11.105864189817	1
4	429	11.174064189817	1
4	431	11.242264189817	1
4	433	11.310464189817	1
4	435	11.312493159462	1
4	437	11.378664189817	1
4	439	11.752864189817	2
4	441	11.833064189817	1
4	443	12.015264189817	1
4	445	12.197464189817	1
4	453	12.640664189817	2
4	455	12.706864189817	3
4	457	12.773064189817	3
4	459	12.853264189817	3
4	461	12.933464189817	3
4	475	13.222664189817	2
4	485	13.511864189817	2
4	490	13.881761782239	1
4	493	13.913961782239	1
4	515	14.894648646215	1
4	517	15.072064189817	1
4	529	15.511264189817	2
4	531	15.640848646215	1
4	547	16.080048646215	2
4	549	16.243248646215	2
4	551	16.257464189817	1
4	553	16.289664189817	3
4	555	16.406448646215	2
4	565	16.452864189817	2
4	569	16.616064189817	2
4	573	17.260648646215	1
4	583	17.470264189817	1
4	585	17.486848646215	1
4	589	17.779048646215	1
4	603	18.216464189817	3
4	613	18.427248646215	1
4	627	18.736448646215	1
4	641	18.962664189817	3
4	643	19.028648646215	2
4	661	19.337848646215	2
4	665	19.460048646215	1
4	669	19.582248646215	2
4	671	19.610864189817	1
4	681	19.860448646215	1
4	689	19.920064189817	1
4	695	20.138648646215	2
4	699	20.233264189817	1
4	711	20.546464189817	1
4	717	20.719362125601	2
4	719	20.732664189817	1
4	743	21.272061618866	2
4	745	21.319261618866	1
4	753	21.46386265397	1
4	761	21.586864189817	3
5	8	0.613918092426	0.613918092426
5	13	0.859118092426	0.859118092426
5	17	1.104318092426	1.104318092426
5	39	1.656035232936	1.656035232936
5	59	2.439264189817	2.439264189817
5	73	2.959064189817	2.959064189817
5	83	3.069264189817	3.069264189817
5	85	3.072464189817	3.072464189817
5	91	3.225664189817	3.225664189817
5	95	3.260864189817	3.260864189817
5	97	3.296064189817	3.296064189817
5	107	3.380109468996	3.380109468996
5	115	3.450509468996	3.450509468996
5	131	4.036264189817	4.036264189817
5	133	4.039464189817	4.039464189817
5	141	4.271664189817	4.271664189817
5	160	4.460316485272	4.460316485272
5	167	4.578064189817	4.578064189817
5	171	4.606516485272	4.606516485272
5	175	4.669716485272	4.669716485272
5	179	4.732916485272	4.732916485272
5	181	4.810264189817	4.810264189817
5	191	5.266464189817	5.266464189817
5	205	5.558864189817	5.558864189817
5	215	5.685264189817	5.685264189817
5	217	5.713464189817	5.713464189817
5	219	5.859664189817	5.859664189817
5	223	6.166064189817	6.166064189817
5	235	6.431022060861	6.431022060861
5	239	6.630464189817	6.630464189817
5	259	6.919512085408	6.919512085408
5	275	7.461322060861	7.461322060861
5	277	7.542864189817	7.542864189817
5	295	8.058064189817	8.058064189817
5	297	8.112922060861	8.112922060861
5	301	8.395122060861	8.395122060861
5	317	8.677322060861	8.677322060861
5	319	8.709664189817	8.709664189817
5	321	8.743522060861	8.743522060861
5	323	8.747864189817	8.747864189817
5	341	9.122064189817	9.122064189817
5	357	9.296493159462	9.296493159462
5	361	9.404264189817	9.404264189817
5	387	9.919464189817	9.919464189817
5	397	10.014893159462	10.014893159462
5	405	10.151293159462	10.151293159462
5	409	10.231493159462	10.231493159462
5	413	10.590693159462	10.590693159462
5	417	10.658893159462	10.658893159462
5	419	10.746664189817	10.746664189817
5	421	10.841093159462	10.841093159462
5	425	11.023293159462	11.023293159462
5	427	11.105864189817	11.105864189817
5	435	11.312493159462	11.312493159462
5	437	11.378664189817	11.378664189817
5	439	11.752864189817	11.752864189817
5	441	11.833064189817	11.833064189817
5	445	12.197464189817	12.197464189817
5	453	12.640664189817	12.640664189817
5	457	12.773064189817	12.773064189817
5	461	12.933464189817	12.933464189817
5	485	13.511864189817	13.511864189817
5	490	13.881761782239	13.881761782239
5	493	13.913961782239	13.913961782239
5	517	15.072064189817	15.072064189817
5	529	15.511264189817	15.511264189817
5	531	15.640848646215	15.640848646215
5	547	16.080048646215	16.080048646215
5	551	16.257464189817	16.257464189817
5	553	16.289664189817	16.289664189817
5	555	16.406448646215	16.406448646215
5	569	16.616064189817	16.616064189817
5	573	17.260648646215	17.260648646215
5	583	17.470264189817	17.470264189817
5	585	17.486848646215	17.486848646215
5	589	17.779048646215	17.779048646215
5	613	18.427248646215	18.427248646215
5	627	18.736448646215	18.736448646215
5	641	18.962664189817	18.962664189817
5	643	19.028648646215	19.028648646215
5	661	19.337848646215	19.337848646215
5	665	19.460048646215	19.460048646215
5	669	19.582248646215	19.582248646215
5	671	19.610864189817	19.610864189817
5	681	19.860448646215	19.860448646215
5	689	19.920064189817	19.920064189817
5	695	20.138648646215	20.138648646215
5	711	20.546464189817	20.546464189817
5	717	20.719362125601	20.719362125601
5	719	20.732664189817	20.732664189817
5	743	21.272061618866	21.272061618866
5	745	21.319261618866	21.319261618866
5	753	21.46386265397	21.46386265397
6	9	0.613918092426	0.613918092426
6	14	0.859118092426	0.859118092426
6	43	2.218964189817	2.218964189817
6	49	2.329164189817	2.329164189817
6	54	2.332364189817	2.332364189817
6	81	3.007016009069	3.007016009069
6	86	3.072564189817	3.072564189817
6	89	3.075764189817	3.075764189817
6	111	3.382164189817	3.382164189817
6	123	3.846564189817	3.846564189817
6	155	4.370563766066	4.370563766066
6	165	4.538764189817	4.538764189817
6	177	4.691964189817	4.691964189817
6	183	4.924164189817	4.924164189817
6	185	4.952364189817	4.952364189817
6	197	5.408564189817	5.408564189817
6	201	5.436764189817	5.436764189817
6	253	6.797593556922	6.797593556922
6	291	7.922114681729	7.922114681729
6	325	8.749314681729	8.749314681729
6	327	8.787514681729	8.787514681729
6	349	9.161714681729	9.161714681729
6	367	9.535914681729	9.535914681729
6	389	9.979114681729	9.979114681729
6	399	10.045314681729	10.045314681729
6	403	10.125514681729	10.125514681729
6	411	10.270018882211	10.270018882211
6	478	13.419810516637	13.419810516637
6	523	15.441861782239	15.441861782239
6	527	15.506261782239	15.506261782239
6	533	15.669461782239	15.669461782239
6	557	16.415661782239	16.415661782239
6	649	19.091186601208	19.091186601208
6	659	19.317386601208	19.317386601208
6	663	19.36988796971	19.36988796971
6	673	19.630586601208	19.630586601208
6	675	19.68308796971	19.68308796971
6	679	19.816786601208	19.816786601208
6	693	20.002986601208	20.002986601208
6	709	20.425186601208	20.425186601208
6	727	21.045586601208	21.045586601208
7	42	2.218964189817	1
7	48	2.329164189817	1
7	106	3.380109468996	1
7	187	5.230864189817	3
7	189	5.259064189817	2
7	193	5.287264189817	2
7	195	5.315464189817	2
7	203	5.464864189817	3
7	234	6.431022060861	1
7	255	6.835693556922	2
7	330	8.853393159462	1
7	358	9.296593159462	1
7	381	9.739793159462	1
7	383	9.805993159462	1
7	385	9.844193159462	2
7	407	10.218393159462	3
7	415	10.592593159462	3
7	423	10.881793159462	1
7	477	13.419810516637	1
7	481	13.452010516637	1
7	483	13.484210516637	1
7	487	13.516410516637	1
7	513	14.556479047125	1
7	571	17.001961782239	3
7	617	18.562161782239	3
7	631	18.788361782239	1
7	647	19.080561782239	1
7	651	19.202761782239	1
7	691	19.99618796971	2
7	697	20.18238796971	2
7	713	20.60458796971	1
7	723	20.79078796971	3
7	741	21.21298796971	2
7	755	21.52318796971	2
8	42	2.218964189817	2.218964189817
8	48	2.329164189817	2.329164189817
8	106	3.380109468996	3.380109468996
8	187	5.230864189817	5.230864189817
8	195	5.315464189817	5.315464189817
8	203	5.464864189817	5.464864189817
8	234	6.431022060861	6.431022060861
8	255	6.835693556922	6.835693556922
8	381	9.739793159462	9.739793159462
8	383	9.805993159462	9.805993159462
8	385	9.844193159462	9.844193159462
8	415	10.592593159462	10.592593159462
8	423	10.881793159462	10.881793159462
8	477	13.419810516637	13.419810516637
8	487	13.516410516637	13.516410516637
8	513	14.556479047125	14.556479047125
8	617	18.562161782239	18.562161782239
8	631	18.788361782239	18.788361782239
8	647	19.080561782239	19.080561782239
8	651	19.202761782239	19.202761782239
8	691	19.99618796971	19.99618796971
8	697	20.18238796971	20.18238796971
8	713	20.60458796971	20.60458796971
8	723	20.79078796971	20.79078796971
8	741	21.21298796971	21.21298796971
8	755	21.52318796971	21.52318796971

