file 22906 1641660438                                           
version 2
run General-0-20220108-16:46:14-400
attr configname General
attr datetime 20220108-16:46:14
attr experiment General
attr inifile linkSW.ini
attr iterationvars ""
attr iterationvarsf ""
attr measurement ""
attr network linkSW
attr processid 400
attr repetition 0
attr replication #0
attr resultdir results
attr runnumber 0
attr seedset 0

vector 0 linkSW.nodo1 HopCount ETV
vector 1 linkSW.nodo2 HopCount ETV
vector 2 linkSW.nodo5 HopCount ETV
vector 3 linkSW.nodo5 delayCountVector ETV
vector 4 linkSW.nodo4 HopCount ETV
vector 5 linkSW.nodo4 delayCountVector ETV
vector 6 linkSW.nodo2 delayCountVector ETV
vector 7 linkSW.nodo3 HopCount ETV
vector 8 linkSW.nodo3 delayCountVector ETV
0	695 2327 4 780 0.368818092426 21.709315965295 100 0 0 0 0
1	3022 4697 5 781 0.368818092426 21.709315965295 202 0 2 71 111
2	7719 4344 6 783 0.368818092426 21.721161916279 186 0 1 46 46
3	12063 1359 7 763 0.613918092426 21.588961916279 37 0.613918092426 21.588961916279 411.33315508331 6166.3200526928
4	13422 2809 8 761 0.613918092426 21.586864189817 120 1 3 193 375
5	16231 3432 8 753 0.613918092426 21.46386265397 93 0.613918092426 21.46386265397 1009.4966268252 14382.564131753
6	19663 1497 9 727 0.613918092426 21.045586601208 41 0.613918092426 21.045586601208 405.27062011404 5799.0154201279
7	21160 793 42 755 2.218964189817 21.52318796971 34 1 3 57 117
8	21953 952 42 755 2.218964189817 21.52318796971 26 2.218964189817 21.52318796971 329.50718686079 5296.1519457648

