version 2
run General-0-20220105-12:31:41-1562
attr configname General
attr datetime 20220105-12:31:41
attr experiment General
attr inifile linkSW.ini
attr iterationvars ""
attr iterationvarsf ""
attr measurement ""
attr network linkSW
attr processid 1562
attr repetition 0
attr replication #0
attr resultdir results
attr runnumber 0
attr seedset 0

vector 0 linkSW.nodo1 HopCount ETV
vector 1 linkSW.nodo2 HopCount ETV
vector 2 linkSW.nodo5 HopCount ETV
vector 3 linkSW.nodo3 HopCount ETV
vector 4 linkSW.nodo4 HopCount ETV
0	4	0.048851598668	0
0	10	0.081051598668	0
0	20	1.786709631707	0
0	26	2.33597659078	0
0	32	2.359514218332	0
0	36	2.374714218332	0
0	48	2.944909631707	0
0	54	3.269178460481	0
0	59	3.311109631707	0
0	64	3.34406062949	0
0	72	3.463450148046	0
0	78	3.917309631707	0
0	80	3.966509631707	0
0	84	4.045709631707	0
0	94	4.628376895165	0
0	112	5.213565315622	0
0	119	5.404576895165	0
0	122	5.603765315622	0
0	134	5.898265153695	0
0	140	5.993965315622	0
0	152	6.450165315622	0
0	156	6.571712335726	0
0	165	7.019912335726	0
0	180	7.324007480699	0
0	192	7.825207480699	0
0	196	7.833301990769	0
0	204	8.172501990769	0
0	220	8.919560213345	0
0	226	9.146479797145	0
0	241	9.643760213345	0
0	245	9.794960213345	0
0	248	9.946160213345	0
1	5	0.048851598668	0
1	7	0.080951598668	1
1	9	0.080951598668	1
1	11	0.081051598668	0
1	15	0.113151598668	0
1	16	0.113251598668	0
1	21	1.786709631707	0
1	27	2.33597659078	0
1	33	2.359514218332	0
1	35	2.374614218332	1
1	38	2.389814218332	0
1	39	2.70207659078	1
1	41	2.71727659078	1
1	44	2.73247659078	0
1	49	2.944909631707	0
1	55	3.269178460481	0
1	60	3.311109631707	0
1	65	3.34406062949	0
1	68	3.39326062949	0
1	73	3.463450148046	0
1	76	3.677309631707	0
1	82	4.043509631707	0
1	86	4.058709631707	0
1	87	4.102909631707	2
1	90	4.424909631707	0
1	95	4.628376895165	0
1	97	4.709109631707	1
1	100	5.031109631707	0
1	101	5.075309631707	2
1	104	5.110309631707	0
1	105	5.124509631707	1
1	107	5.203709631707	1
1	113	5.213565315622	0
1	116	5.315309631707	0
1	117	5.404476895165	1
1	124	5.681509631707	0
1	127	5.809909631707	2
1	129	5.859109631707	2
1	135	5.898265153695	0
1	137	5.938309631707	2
1	142	6.047709631707	0
1	144	6.268509631707	0
1	147	6.394509631707	1
1	150	6.437909631707	0
1	157	6.571712335726	0
1	160	6.828109631707	0
1	161	6.906165315622	2
1	168	7.044709631707	0
1	170	7.093909631707	0
1	172	7.173109631707	0
1	174	7.218309631707	0
1	176	7.267509631707	0
1	181	7.324007480699	0
1	183	7.362365315622	2
1	188	7.723709631707	0
1	190	7.802909631707	0
1	197	7.833301990769	0
1	200	7.949309631707	0
1	203	8.172401990769	1
1	206	8.304109631707	0
1	209	8.326207480699	2
1	212	8.555509631707	0
1	216	8.827407480699	0
1	221	8.919560213345	0
1	227	9.146479797145	0
1	230	9.161709631707	0
1	232	9.328607480699	0
1	234	9.479807480699	0
1	236	9.617909631707	0
1	238	9.631007480699	0
1	240	9.643660213345	1
1	244	9.794860213345	1
2	6	0.048851598668	0
2	12	0.081051598668	0
2	22	1.786709631707	0
2	28	2.33597659078	0
2	34	2.359514218332	0
2	40	2.70217659078	0
2	42	2.71737659078	0
2	45	2.944809631707	1
2	50	2.944909631707	0
2	56	3.269178460481	0
2	57	3.311009631707	1
2	66	3.34406062949	0
2	74	3.463450148046	0
2	77	3.917209631707	1
2	79	3.966409631707	1
2	83	4.045609631707	1
2	88	4.103009631707	0
2	96	4.628376895165	0
2	98	4.709209631707	0
2	102	5.075409631707	0
2	106	5.124609631707	0
2	108	5.203809631707	0
2	114	5.213565315622	0
2	120	5.404576895165	0
2	121	5.603665315622	1
2	126	5.794776895165	0
2	128	5.810009631707	0
2	130	5.859209631707	0
2	136	5.898265153695	0
2	138	5.938409631707	0
2	139	5.993865315622	1
2	146	6.384065315622	0
2	148	6.394609631707	0
2	151	6.450065315622	1
2	158	6.571712335726	0
2	162	6.906265315622	0
2	163	7.019812335726	1
2	166	7.019912335726	0
2	182	7.324007480699	0
2	184	7.362465315622	0
2	186	7.468112335726	0
2	191	7.825107480699	1
2	198	7.833301990769	0
2	202	7.969312335726	0
2	208	8.308512335726	0
2	210	8.326307480699	0
2	214	8.647712335726	0
2	222	8.919560213345	0
2	228	9.146479797145	0
2	239	9.643660213345	1
2	242	9.643760213345	0
2	243	9.794860213345	1
2	246	9.794960213345	0
2	247	9.946060213345	1
3	8	0.080951598668	1
3	14	0.113151598668	2
3	37	2.389714218332	2
3	43	2.73237659078	2
3	67	3.39316062949	1
3	115	5.315209631707	2
3	123	5.681409631707	3
3	141	6.047609631707	3
3	149	6.437809631707	1
3	159	6.828009631707	1
3	173	7.218209631707	1
3	175	7.267409631707	3
3	187	7.723609631707	1
3	189	7.802809631707	3
3	205	8.304009631707	1
3	215	8.827307480699	3
3	231	9.328507480699	3
3	233	9.479707480699	1
3	237	9.630907480699	1
4	13	0.113051598668	2
4	46	2.944809631707	1
4	47	2.944809631707	1
4	58	3.311009631707	1
4	75	3.677209631707	1
4	81	4.043409631707	1
4	85	4.058609631707	1
4	89	4.424809631707	2
4	99	5.031009631707	1
4	103	5.110209631707	1
4	118	5.404476895165	1
4	125	5.794676895165	1
4	143	6.268409631707	3
4	145	6.383965315622	2
4	164	7.019812335726	1
4	167	7.044609631707	1
4	169	7.093809631707	2
4	171	7.173009631707	2
4	185	7.468012335726	2
4	199	7.949209631707	2
4	201	7.969212335726	1
4	207	8.308412335726	1
4	211	8.555409631707	3
4	213	8.647612335726	1
4	229	9.161609631707	3
4	235	9.617809631707	2

