file 24422 1642625170                                           
version 2
run General-0-20220119-20:44:04-937
attr configname General
attr datetime 20220119-20:44:04
attr experiment General
attr inifile linkSW.ini
attr iterationvars ""
attr iterationvarsf ""
attr measurement ""
attr network linkSW
attr processid 937
attr repetition 0
attr replication #0
attr resultdir results
attr runnumber 0
attr seedset 0

vector 0 linkSW.nodo1 HopCount ETV
vector 1 linkSW.nodo2 HopCount ETV
vector 2 linkSW.nodo5 HopCount ETV
vector 3 linkSW.nodo3 delayCountVector ETV
vector 4 linkSW.nodo3 HopCount ETV
vector 5 linkSW.nodo5 delayCountVector ETV
vector 6 linkSW.nodo4 delayCountVector ETV
vector 7 linkSW.nodo4 HopCount ETV
vector 8 linkSW.nodo2 delayCountVector ETV
0	695 3186 4 1382 1.657540207832 70.318647997092 133 0 0 0 0
1	3881 5148 5 1389 1.657540207832 70.649873541169 214 0 2 91 111
2	9029 4301 6 1391 1.657540207832 70.768206874503 179 0 1 46 46
3	13330 1202 25 1321 4.842440592462 65.771832819833 32 4.842440592462 65.771832819833 1299.2487911128 63207.698533962
4	14532 765 25 1321 4.842440592462 65.771832819833 32 1 3 47 79
5	15297 1757 33 1391 5.198540207832 70.768206874503 46 5.198540207832 70.768206874503 1990.9251828937 102226.57054368
6	17054 2616 34 1363 5.198540207832 69.232206874501 69 5.198540207832 69.232206874501 2679.4582743405 125485.53921289
7	19670 1662 34 1363 5.198540207832 69.232206874501 69 1 3 83 113
8	21332 3089 35 1389 5.198540207832 70.649873541169 81 5.198540207832 70.649873541169 3413.3609284809 169000.12013765

